LAMMPS FENE chain data file

         800  atoms
         784  bonds
           0  angles
           0  dihedrals
           0  impropers

           2  atom types
           2  bond types
           0  angle types
           0  dihedral types
           0  improper types

 -5.425612  5.425612 xlo xhi
 -5.425612  5.425612 ylo yhi
 -5.425612  5.425612 zlo zhi

Masses

  1  1.0
  2  1.0

Atoms

         1       1       1   -1.2873    2.2232    4.2509   0   0   0
         2       1       1   -1.1064    1.3947    4.7219   0   0   0
         3       1       1   -1.5552    0.6726    4.2550   0   0   0
         4       1       1   -1.0065    0.5428    3.4657   0   0   0
         5       1       1   -1.1034   -0.3187    3.9008   0   0   0
         6       1       1   -0.5598   -0.8836    3.3296   0   0   0
         7       1       1    0.2354   -0.4226    3.0196   0   0   0
         8       1       1    0.9136   -0.9944    2.6271   0   0   0
         9       1       1    1.8781   -0.9117    2.6891   0   0   0
        10       1       1    1.9218   -1.4347    3.5049   0   0   0
        11       1       1    1.6866   -1.4122    4.4457   0   0   0
        12       1       1    2.1455   -0.5579    4.4664   0   0   0
        13       1       1    3.0300   -0.9010    4.6685   0   0   0
        14       1       1    3.7557   -1.3487    5.1308   0   0   0
        15       1       1    4.0885   -1.0760    4.2614   0   0   0
        16       1       1    3.6432   -0.2978    4.6316   0   0   0
        17       1       1    3.1968   -0.6012   -5.4136   0   0   1
        18       1       1    3.7183   -1.0246    4.7378   0   0   0
        19       1       1    3.9757   -0.1961    5.1716   0   0   0
        20       1       1    3.1336   -0.3766   -5.2332   0   0   1
        21       1       1    2.4333   -0.5251   -4.5787   0   0   1
        22       1       1    2.5968   -1.0960   -3.8117   0   0   1
        23       1       1    3.1818   -0.8726   -3.0709   0   0   1
        24       1       1    3.7810   -1.4828   -3.5287   0   0   1
        25       1       1    2.9484   -1.6018   -4.0120   0   0   1
        26       1       1    2.8816   -0.8485   -3.4046   0   0   1
        27       1       1    3.0016    0.0884   -3.1840   0   0   1
        28       1       1    3.4357    0.9466   -3.0581   0   0   1
        29       1       1    4.1017    1.0206   -2.3568   0   0   1
        30       1       1    4.8565    1.2440   -2.9237   0   0   1
        31       1       1   -5.3628    0.6513   -2.4876   1   0   1
        32       1       1   -5.1811    1.6041   -2.4887   1   0   1
        33       1       1    4.8475    1.9990   -2.8177   0   0   1
        34       1       1   -5.1935    2.2785   -2.3634   1   0   1
        35       1       1   -5.1552    1.4786   -2.9107   1   0   1
        36       1       1   -4.5042    0.8197   -2.6227   1   0   1
        37       1       1   -3.6049    0.4661   -2.5379   1   0   1
        38       1       1   -3.9388    0.2614   -3.4253   1   0   1
        39       1       1   -4.4848    0.9972   -3.7437   1   0   1
        40       1       1   -5.3672    1.3378   -3.5289   1   0   1
        41       1       1    4.9937    0.9549   -2.7846   0   0   1
        42       1       1   -5.0193    0.6533   -3.1683   1   0   1
        43       1       1   -4.5975    0.1749   -3.8992   1   0   1
        44       1       1   -4.8661   -0.7560   -3.8544   1   0   1
        45       1       1   -5.0259   -1.2015   -4.7011   1   0   1
        46       1       1    5.0744   -0.6923   -5.0444   0   0   1
        47       1       1    4.6665   -1.5724   -5.0511   0   0   1
        48       1       1    5.0515   -2.4449   -5.2283   0   0   1
        49       1       1    5.1545   -3.3142    5.2052   0   0   0
        50       1       1    4.9674   -2.3989   -5.3849   0   0   1
        51       2       1   -4.8739    0.7136    2.4044   0   0   0
        52       2       1   -4.9954    1.2611    3.1959   0   0   0
        53       2       1    5.1125    1.8032    2.8886  -1   0   0
        54       2       1    4.7803    2.6796    3.1385  -1   0   0
        55       2       1    5.1697    3.1076    2.3600  -1   0   0
        56       2       1    4.6660    2.5668    1.7319  -1   0   0
        57       2       1    5.0432    2.0552    0.9991  -1   0   0
        58       2       1   -5.1046    1.7049    0.4304   0   0   0
        59       2       1    5.1602    1.8266   -0.3327  -1   0   0
        60       2       1   -5.1848    2.2684    0.3669   0   0   0
        61       2       1    5.1839    1.4356    0.4874  -1   0   0
        62       2       1    5.0041    2.3698    0.6767  -1   0   0
        63       2       1    5.0688    2.9013   -0.1321  -1   0   0
        64       2       1    4.1152    2.7979   -0.2761  -1   0   0
        65       2       1    3.4200    2.9330    0.3868  -1   0   0
        66       2       1    3.4574    3.9003    0.4474  -1   0   0
        67       2       1    4.0933    3.8892    1.1798  -1   0   0
        68       2       1    3.9365    3.7815    2.1310  -1   0   0
        69       2       1    4.8469    3.4719    2.0041  -1   0   0
        70       2       1    5.2763    2.7393    1.5353  -1   0   0
        71       2       1   -5.1104    2.0605    2.0495   0   0   0
        72       2       1    4.9025    2.3950    2.4049  -1   0   0
        73       2       1    4.8674    2.0351    3.3050  -1   0   0
        74       2       1    4.0234    2.3724    2.9660  -1   0   0
        75       2       1    3.4002    2.3826    3.7093  -1   0   0
        76       2       1    3.3261    1.4182    3.6352  -1   0   0
        77       2       1    3.1907    0.5318    4.0050  -1   0   0
        78       2       1    2.2355    0.4086    3.8892  -1   0   0
        79       2       1    1.2663    0.3763    3.9083  -1   0   0
        80       2       1    0.9771    1.0845    4.5046  -1   0   0
        81       2       1    0.2280    0.6966    4.0259  -1   0   0
        82       2       1   -0.6769    0.7954    4.3608  -1   0   0
        83       2       1   -1.5464    0.3865    4.4942  -1   0   0
        84       2       1   -1.9451    0.2429    5.3667  -1   0   0
        85       2       1   -2.0058   -0.1879   -4.6175  -1   0   1
        86       2       1   -2.9552   -0.0534   -4.4712  -1   0   1
        87       2       1   -3.5382    0.6613   -4.7714  -1   0   1
        88       2       1   -3.9143    0.7961    5.1959  -1   0   0
        89       2       1   -3.3963    1.6114    5.1066  -1   0   0
        90       2       1   -3.2526    1.7994    4.1659  -1   0   0
        91       2       1   -3.1480    1.0584    3.5487  -1   0   0
        92       2       1   -4.0325    0.9062    3.9165  -1   0   0
        93       2       1   -3.8637    1.8549    3.8055  -1   0   0
        94       2       1   -4.2533    2.5956    4.2959  -1   0   0
        95       2       1   -4.7841    3.3059    4.6892  -1   0   0
        96       2       1   -4.5610    2.7092    5.4207  -1   0   0
        97       2       1   -5.2097    2.6649   -4.7107  -1   0   1
        98       2       1   -5.4221    2.3807   -3.8080  -1   0   1
        99       2       1    5.1947    1.6481   -3.2169  -2   0   1
       100       2       1    5.2701    0.9584   -2.5390  -2   0   1
       101       3       1    3.7579    5.1678    1.4323   0   0   0
       102       3       1    4.5679   -5.1914    1.2255   0   1   0
       103       3       1    4.5708   -4.8724    0.3094   0   1   0
       104       3       1   -5.3379   -4.9028    0.5365   1   1   0
       105       3       1    4.6120   -5.2494    0.6283   0   1   0
       106       3       1    4.6215    4.8178    0.0572   0   0   0
       107       3       1    5.3477    4.2908    0.4256   0   0   0
       108       3       1    5.2319    3.4925    0.9644   0   0   0
       109       3       1   -4.8618    3.6031    1.5601   1   0   0
       110       3       1   -4.8481    4.4310    1.0548   1   0   0
       111       3       1   -5.2918    4.8960    0.3283   1   0   0
       112       3       1   -4.5529    5.3300   -0.1260   1   0   0
       113       3       1   -4.1565   -5.2351   -0.9638   1   1   0
       114       3       1   -3.4310   -4.7992   -1.4377   1   1   0
       115       3       1   -3.3175   -3.9648   -0.9563   1   1   0
       116       3       1   -2.4904   -3.5784   -1.2842   1   1   0
       117       3       1   -2.9828   -2.7716   -1.0663   1   1   0
       118       3       1   -2.1519   -2.6198   -0.5894   1   1   0
       119       3       1   -1.7294   -3.3537   -0.1163   1   1   0
       120       3       1   -1.0011   -3.9760   -0.2688   1   1   0
       121       3       1   -0.1002   -4.2864   -0.4503   1   1   0
       122       3       1    0.3569   -4.2743    0.4051   1   1   0
       123       3       1    1.2513   -4.2942    0.7801   1   1   0
       124       3       1    1.0576   -3.9354    1.6603   1   1   0
       125       3       1    2.0181   -3.8117    1.7158   1   1   0
       126       3       1    2.6594   -4.4233    2.1102   1   1   0
       127       3       1    1.9651   -4.5350    2.7783   1   1   0
       128       3       1    1.9658   -3.5841    2.5869   1   1   0
       129       3       1    1.7491   -3.1009    1.7742   1   1   0
       130       3       1    0.8381   -2.8928    1.5142   1   1   0
       131       3       1    0.0758   -2.3603    1.7904   1   1   0
       132       3       1    0.8080   -1.7385    1.6559   1   1   0
       133       3       1    0.8663   -1.4740    2.5874   1   1   0
       134       3       1    0.4007   -2.3248    2.6073   1   1   0
       135       3       1    1.1798   -2.7169    3.0319   1   1   0
       136       3       1    1.1197   -2.0031    3.6860   1   1   0
       137       3       1    1.6133   -1.4346    3.0744   1   1   0
       138       3       1    2.0047   -2.3215    3.1092   1   1   0
       139       3       1    2.4914   -2.3458    3.9479   1   1   0
       140       3       1    3.2796   -2.6198    4.4425   1   1   0
       141       3       1    3.2941   -3.3281    5.1051   1   1   0
       142       3       1    2.5063   -2.9052   -5.3700   1   1   1
       143       3       1    3.0036   -3.6361   -4.9708   1   1   1
       144       3       1    2.2999   -4.2069   -4.6245   1   1   1
       145       3       1    1.4472   -4.0807   -4.1797   1   1   1
       146       3       1    1.2085   -3.7291   -3.3078   1   1   1
       147       3       1    0.8639   -2.8656   -3.0310   1   1   1
       148       3       1    0.3882   -3.2844   -2.2967   1   1   1
       149       3       1    1.2486   -3.2665   -1.8492   1   1   1
       150       3       1    1.2795   -3.1764   -2.8145   1   1   1
       151       4       1    3.8204    3.4889   -1.6860   0   0   0
       152       4       1    3.0922    3.4672   -2.3264   0   0   0
       153       4       1    2.5088    3.3121   -3.0856   0   0   0
       154       4       1    1.9913    3.9639   -2.5873   0   0   0
       155       4       1    1.2413    3.4877   -2.1978   0   0   0
       156       4       1    1.2921    2.9242   -1.4099   0   0   0
       157       4       1    0.7831    3.4371   -0.7628   0   0   0
       158       4       1    1.5746    3.9498   -0.9899   0   0   0
       159       4       1    1.8787    4.3680   -1.8106   0   0   0
       160       4       1    2.8473    4.4162   -1.8276   0   0   0
       161       4       1    3.2458    4.2136   -0.9667   0   0   0
       162       4       1    3.5048    3.2791   -0.9465   0   0   0
       163       4       1    3.8320    2.7265   -1.6735   0   0   0
       164       4       1    3.6944    2.0760   -0.9672   0   0   0
       165       4       1    3.0069    2.5394   -0.4638   0   0   0
       166       4       1    2.2131    1.9932   -0.3521   0   0   0
       167       4       1    1.7126    2.3675    0.3898   0   0   0
       168       4       1    2.3712    2.6997    1.0197   0   0   0
       169       4       1    2.5467    1.7483    1.0904   0   0   0
       170       4       1    2.6289    1.8171    0.1263   0   0   0
       171       4       1    2.1814    1.4524   -0.6532   0   0   0
       172       4       1    2.2935    0.4891   -0.6321   0   0   0
       173       4       1    3.1312    0.0155   -0.7535   0   0   0
       174       4       1    3.6953    0.7953   -0.6327   0   0   0
       175       4       1    3.2537    0.8752   -1.4926   0   0   0
       176       4       1    3.5723    1.7820   -1.6236   0   0   0
       177       4       1    2.6292    1.9944   -1.7037   0   0   0
       178       4       1    2.9187    2.9152   -1.6076   0   0   0
       179       4       1    3.7635    2.7550   -2.0566   0   0   0
       180       4       1    4.4493    2.3565   -2.6150   0   0   0
       181       4       1    4.7160    2.7152   -3.4759   0   0   0
       182       4       1   -5.4190    2.0651   -3.4041   1   0   0
       183       4       1    5.1060    2.7720   -2.8257   0   0   0
       184       4       1    4.7014    1.9422   -3.1233   0   0   0
       185       4       1    4.9603    1.4724   -2.3152   0   0   0
       186       4       1    5.1692    1.0055   -1.4910   0   0   0
       187       4       1    5.2204    0.8796   -0.5305   0   0   0
       188       4       1   -5.4021    1.6707   -0.0179   1   0   0
       189       4       1    5.0750    0.8405    0.3164   0   0   0
       190       4       1   -5.1048    0.1563    0.4645   1   0   0
       191       4       1    5.1436    0.8671    0.7335   0   0   0
       192       4       1   -5.1314    0.0871    0.7554   1   0   0
       193       4       1   -5.1519   -0.7807    1.1885   1   0   0
       194       4       1    5.3046   -1.4131    0.5679   0   0   0
       195       4       1    5.1764   -1.0996   -0.3411   0   0   0
       196       4       1   -5.3016   -0.2046   -0.3678   1   0   0
       197       4       1   -4.5624   -0.5779   -0.8731   1   0   0
       198       4       1   -4.5670   -1.5085   -0.5996   1   0   0
       199       4       1   -4.7916   -1.6628    0.3313   1   0   0
       200       4       1   -3.9529   -1.6493    0.8184   1   0   0
       201       5       1   -3.3526    3.2881   -1.6399   0   0   0
       202       5       1   -3.2917    3.4090   -0.6794   0   0   0
       203       5       1   -4.0006    3.0474   -0.1248   0   0   0
       204       5       1   -3.6261    2.1649    0.0234   0   0   0
       205       5       1   -2.7850    1.7537   -0.2302   0   0   0
       206       5       1   -3.0082    1.1427    0.4894   0   0   0
       207       5       1   -3.1604    0.1974    0.6449   0   0   0
       208       5       1   -3.8773    0.3985    1.2665   0   0   0
       209       5       1   -3.9724    1.2742    1.6728   0   0   0
       210       5       1   -3.5182    1.9643    1.1646   0   0   0
       211       5       1   -3.2057    2.5766    1.8489   0   0   0
       212       5       1   -3.4196    2.6884    2.7884   0   0   0
       213       5       1   -3.4414    3.0572    3.6853   0   0   0
       214       5       1   -2.4834    2.9578    3.5702   0   0   0
       215       5       1   -1.6618    3.2810    3.1685   0   0   0
       216       5       1   -0.8857    3.7603    2.8388   0   0   0
       217       5       1   -0.1334    4.2622    3.1897   0   0   0
       218       5       1    0.3131    4.0727    4.0297   0   0   0
       219       5       1    0.3110    3.4963    4.8099   0   0   0
       220       5       1    0.0662    2.8923    4.0914   0   0   0
       221       5       1   -0.3862    2.1273    4.4800   0   0   0
       222       5       1   -1.2967    1.7955    4.4362   0   0   0
       223       5       1   -1.1796    0.9262    4.8503   0   0   0
       224       5       1   -0.4690    1.5606    5.0339   0   0   0
       225       5       1   -0.3855    2.4593    5.3891   0   0   0
       226       5       1   -0.5859    2.6147   -4.5258   0   0   1
       227       5       1    0.2161    2.4694   -5.0517   0   0   1
       228       5       1    0.8945    3.0000    5.3533   0   0   0
       229       5       1    0.7013    3.8264   -5.0281   0   0   1
       230       5       1    0.9900    3.0892    5.2627   0   0   0
       231       5       1    0.3246    2.3835    5.2777   0   0   0
       232       5       1   -0.0170    2.4124   -4.6661   0   0   1
       233       5       1   -0.3672    1.5082   -4.6384   0   0   1
       234       5       1   -1.1976    1.2409   -5.0626   0   0   1
       235       5       1   -0.8785    0.5215    5.2216   0   0   0
       236       5       1   -1.5703   -0.0936   -5.3399   0   0   1
       237       5       1   -0.9093    0.1406   -4.6697   0   0   1
       238       5       1   -0.4493    0.7160   -4.0386   0   0   1
       239       5       1   -0.3187    0.3712   -3.1414   0   0   1
       240       5       1    0.0138   -0.5326   -3.0254   0   0   1
       241       5       1   -0.2493   -1.4654   -2.9835   0   0   1
       242       5       1   -0.0085   -1.4239   -3.9222   0   0   1
       243       5       1   -0.2979   -1.6806   -4.8117   0   0   1
       244       5       1   -1.0128   -2.2547   -5.1282   0   0   1
       245       5       1   -1.5259   -2.5200    4.9438   0   0   0
       246       5       1   -2.4556   -2.7744    4.8348   0   0   0
       247       5       1   -2.4563   -3.4101   -5.2838   0   0   1
       248       5       1   -3.0923   -2.8258    5.1259   0   0   0
       249       5       1   -3.4956   -2.3794    4.3650   0   0   0
       250       5       1   -3.8673   -3.1919    3.9875   0   0   0
       251       6       1    2.5171   -4.6937    1.2483   0   0   0
       252       6       1    1.7671   -4.0786    1.2554   0   0   0
       253       6       1    2.0736   -4.1084    0.3356   0   0   0
       254       6       1    2.3749   -3.9814   -0.5776   0   0   0
       255       6       1    2.9815   -3.4970   -1.1593   0   0   0
       256       6       1    2.6476   -2.7724   -1.7109   0   0   0
       257       6       1    1.7480   -3.1143   -1.8329   0   0   0
       258       6       1    1.0510   -3.0692   -2.5060   0   0   0
       259       6       1    0.5153   -2.3740   -2.0930   0   0   0
       260       6       1   -0.2265   -2.5232   -2.6999   0   0   0
       261       6       1   -0.8674   -2.5827   -1.9743   0   0   0
       262       6       1   -0.6196   -1.7336   -1.5763   0   0   0
       263       6       1    0.0941   -2.3845   -1.4873   0   0   0
       264       6       1    0.9794   -2.5520   -1.8467   0   0   0
       265       6       1    1.6750   -2.0078   -1.4454   0   0   0
       266       6       1    2.3768   -1.4282   -1.7805   0   0   0
       267       6       1    2.8367   -1.1746   -0.9649   0   0   0
       268       6       1    2.6571   -1.7691   -0.2198   0   0   0
       269       6       1    3.1178   -2.5795    0.0482   0   0   0
       270       6       1    3.8474   -3.1496    0.3373   0   0   0
       271       6       1    4.4492   -3.5979    0.9520   0   0   0
       272       6       1    3.6452   -4.1005    0.7473   0   0   0
       273       6       1    3.1639   -4.9402    0.8126   0   0   0
       274       6       1    2.2654   -5.0201    0.4559   0   0   0
       275       6       1    2.0407   -5.2677    1.3665   0   0   0
       276       6       1    2.5165    4.7489    1.2321   0  -1   0
       277       6       1    2.3596    4.4370    0.3272   0  -1   0
       278       6       1    2.9588    4.6898   -0.3926   0  -1   0
       279       6       1    2.4410    3.9819   -0.8069   0  -1   0
       280       6       1    1.9335    4.6637   -0.3394   0  -1   0
       281       6       1    1.2891    4.2726   -0.9499   0  -1   0
       282       6       1    1.3934    5.1754   -1.2892   0  -1   0
       283       6       1    1.1635    4.8140   -2.1595   0  -1   0
       284       6       1    0.6393    4.8191   -2.9756   0  -1   0
       285       6       1   -0.1046    4.3979   -3.4341   0  -1   0
       286       6       1   -0.1934    3.6592   -4.0565   0  -1   0
       287       6       1    0.1586    3.4609   -4.9383   0  -1   0
       288       6       1    1.0861    3.5966   -5.1878   0  -1   0
       289       6       1    1.8767    3.0387   -5.2556   0  -1   0
       290       6       1    2.7088    3.2545   -4.8062   0  -1   0
       291       6       1    3.2179    2.5588   -5.2509   0  -1   0
       292       6       1    2.9850    1.7883    5.0590   0  -1  -1
       293       6       1    2.4009    2.4580   -5.4032   0  -1   0
       294       6       1    2.0970    1.7964    4.8069   0  -1  -1
       295       6       1    2.7796    2.4599    4.6207   0  -1  -1
       296       6       1    3.1911    3.3380    4.5985   0  -1  -1
       297       6       1    4.1128    3.6274    4.5103   0  -1  -1
       298       6       1    5.0671    3.4641    4.5699   0  -1  -1
       299       6       1    5.2526    2.7930    3.8945   0  -1  -1
       300       6       1    5.2399    2.2810    4.7184   0  -1  -1
       301       7       1   -1.8080   -4.4365    5.0130   0   0   0
       302       7       1   -2.4431   -4.9171    4.4592   0   0   0
       303       7       1   -1.8112   -4.9667    3.7250   0   0   0
       304       7       1   -1.3239    5.0461    3.7045   0  -1   0
       305       7       1   -1.3679   -4.8451    3.8354   0   0   0
       306       7       1   -0.7243   -5.3222    4.3823   0   0   0
       307       7       1    0.1500   -4.9896    4.1255   0   0   0
       308       7       1   -0.2506   -4.2741    4.6437   0   0   0
       309       7       1   -1.1041   -4.3239    4.1855   0   0   0
       310       7       1   -1.6441   -5.0299    4.5738   0   0   0
       311       7       1   -1.1254   -5.3262    3.8097   0   0   0
       312       7       1   -0.9780    4.5719    3.9134   0  -1   0
       313       7       1   -1.2210    3.6614    3.6834   0  -1   0
       314       7       1   -0.8751    3.2689    2.8666   0  -1   0
       315       7       1    0.0344    3.4052    2.5583   0  -1   0
       316       7       1    0.8579    3.3210    2.0527   0  -1   0
       317       7       1    1.7232    3.3137    2.4909   0  -1   0
       318       7       1    1.3796    2.4090    2.5572   0  -1   0
       319       7       1    0.9111    2.3749    1.7085   0  -1   0
       320       7       1    0.9766    1.6907    1.0240   0  -1   0
       321       7       1    0.6037    0.8481    0.7210   0  -1   0
       322       7       1    0.5438   -0.0699    0.4133   0  -1   0
       323       7       1    0.4082   -0.8549    0.9668   0  -1   0
       324       7       1    0.8817   -0.1415    1.4227   0  -1   0
       325       7       1    1.5772    0.4112    1.0333   0  -1   0
       326       7       1    1.3413    0.0004    0.1868   0  -1   0
       327       7       1    1.8282    0.4584   -0.5161   0  -1   0
       328       7       1    2.5097    1.1304   -0.3585   0  -1   0
       329       7       1    2.4927    1.6631    0.4520   0  -1   0
       330       7       1    2.2090    0.8403    0.8801   0  -1   0
       331       7       1    2.1617    1.5975    1.4844   0  -1   0
       332       7       1    1.9690    2.4476    1.9101   0  -1   0
       333       7       1    1.2901    1.9603    2.4027   0  -1   0
       334       7       1    1.4865    1.2749    3.0604   0  -1   0
       335       7       1    0.6441    0.8005    3.1398   0  -1   0
       336       7       1    1.4069    0.2210    2.9871   0  -1   0
       337       7       1    1.8958    1.0188    3.2429   0  -1   0
       338       7       1    2.4614    1.4608    3.8954   0  -1   0
       339       7       1    2.4046    0.5808    4.2994   0  -1   0
       340       7       1    3.3695    0.6046    4.2029   0  -1   0
       341       7       1    3.3723    1.5682    4.3141   0  -1   0
       342       7       1    3.4276    1.6304    5.2805   0  -1   0
       343       7       1    3.1701    2.4730   -5.1651   0  -1   1
       344       7       1    4.1261    2.5541   -5.0219   0  -1   1
       345       7       1    3.7945    1.6426   -5.0072   0  -1   1
       346       7       1    4.6197    1.5082    5.3521   0  -1   0
       347       7       1    3.6777    1.2798    5.3898   0  -1   0
       348       7       1    3.2777    2.1039    5.0709   0  -1   0
       349       7       1    3.1703    2.7264    4.3348   0  -1   0
       350       7       1    2.7597    3.4642    4.8124   0  -1   0
       351       8       1   -4.6150    0.7391   -2.9618   0   0   0
       352       8       1   -5.2873    1.4032   -2.7432   0   0   0
       353       8       1    4.7779    1.8935   -2.4558  -1   0   0
       354       8       1    5.4091    2.5504   -2.1227  -1   0   0
       355       8       1   -4.9040    2.2598   -1.3698   0   0   0
       356       8       1   -5.3477    2.8354   -0.7275   0   0   0
       357       8       1    4.7114    3.3953   -0.7319  -1   0   0
       358       8       1   -5.2885    3.6885   -1.0926   0   0   0
       359       8       1   -4.4539    3.2301   -0.9077   0   0   0
       360       8       1   -4.5298    3.0108    0.0341   0   0   0
       361       8       1   -5.0122    3.5653    0.6671   0   0   0
       362       8       1   -4.9141    2.6851    1.0628   0   0   0
       363       8       1   -4.3914    2.4271    0.2875   0   0   0
       364       8       1   -4.0341    1.8634   -0.4164   0   0   0
       365       8       1   -3.5872    1.8525   -1.2773   0   0   0
       366       8       1   -3.4454    2.8018   -1.1376   0   0   0
       367       8       1   -2.7214    3.0679   -1.7258   0   0   0
       368       8       1   -2.2965    2.2789   -1.3544   0   0   0
       369       8       1   -1.9341    1.3890   -1.4873   0   0   0
       370       8       1   -2.3363    1.4421   -0.6062   0   0   0
       371       8       1   -3.2318    1.8143   -0.5839   0   0   0
       372       8       1   -3.0988    1.2054    0.1593   0   0   0
       373       8       1   -3.9069    1.6741    0.4202   0   0   0
       374       8       1   -4.3423    2.5064    0.6624   0   0   0
       375       8       1   -4.9284    2.2065   -0.0499   0   0   0
       376       8       1    5.2567    2.3630   -0.7374  -1   0   0
       377       8       1   -4.7873    2.3225   -1.2738   0   0   0
       378       8       1   -4.9036    1.9615   -0.3810   0   0   0
       379       8       1   -4.3977    1.1442   -0.2509   0   0   0
       380       8       1   -5.2745    0.8999    0.0844   0   0   0
       381       8       1   -4.8820    0.4073    0.8221   0   0   0
       382       8       1   -4.1369    0.2695    0.2165   0   0   0
       383       8       1   -3.5262    0.9713   -0.0582   0   0   0
       384       8       1   -2.8520    1.6660    0.0027   0   0   0
       385       8       1   -1.9843    1.2408    0.0876   0   0   0
       386       8       1   -1.1909    1.7877    0.1986   0   0   0
       387       8       1   -0.3951    1.9864    0.7164   0   0   0
       388       8       1    0.3521    1.3992    0.9109   0   0   0
       389       8       1   -0.0099    0.5489    1.2058   0   0   0
       390       8       1   -0.8317    1.0260    1.0111   0   0   0
       391       8       1   -1.5990    0.5736    1.3953   0   0   0
       392       8       1   -2.1250   -0.1647    1.0500   0   0   0
       393       8       1   -1.5005    0.2234    0.4172   0   0   0
       394       8       1   -2.2769    0.8019    0.3584   0   0   0
       395       8       1   -2.8625    0.5856    1.1009   0   0   0
       396       8       1   -2.1472   -0.0288    1.3281   0   0   0
       397       8       1   -2.0807    0.6421    2.0255   0   0   0
       398       8       1   -1.4696    1.2371    2.4873   0   0   0
       399       8       1   -2.3579    1.2312    2.8768   0   0   0
       400       8       1   -3.1618    1.7227    2.6465   0   0   0
       401       9       2    2.6277   -0.6805   -0.5168   0   0   0
       402       9       2    2.0836   -0.5697    0.5130   0   0   0
       403       9       2    2.3353   -1.6928    0.7233   0   0   0
       404       9       2    3.4872   -1.8698    0.6201   0   0   0
       405       9       2    4.5673   -1.4896    0.8605   0   0   0
       406       9       2   -5.1237   -1.6126    0.7731   1   0   0
       407       9       2    4.8649   -1.2344    0.0789   0   0   0
       408       9       2   -5.0243   -1.6776   -0.4182   1   0   0
       409       9       2    4.7095   -1.4220   -0.6525   0   0   0
       410       9       2    4.2912   -1.9904    0.2807   0   0   0
       411       9       2    4.0058   -3.1250    0.2622   0   0   0
       412       9       2    3.3740   -3.7419    1.0298   0   0   0
       413       9       2    2.6163   -4.1250    0.2248   0   0   0
       414       9       2    2.0121   -4.9119   -0.3954   0   0   0
       415       9       2    1.8257   -4.3868   -1.4242   0   0   0
       416       9       2    1.0641   -3.5234   -1.2156   0   0   0
       417       9       2   -0.0444   -3.7812   -1.4869   0   0   0
       418       9       2   -0.7186   -4.4713   -2.1488   0   0   0
       419       9       2   -0.1263   -5.3652   -1.6810   0   0   0
       420       9       2    0.1360    4.9145   -0.6943   0  -1   0
       421       9       2   -0.9952    4.7450   -0.9404   0  -1   0
       422       9       2   -1.6332   -5.1334   -0.8161   0   0   0
       423       9       2   -0.9897    4.7564   -0.6415   0  -1   0
       424       9       2   -0.7230    5.3267    0.3447   0  -1   0
       425       9       2   -0.0845    4.7138    1.1099   0  -1   0
       426       9       2    0.2054    3.8872    0.3343   0  -1   0
       427       9       2    1.1836    3.2711    0.1537   0  -1   0
       428       9       2    0.4524    3.2131   -0.7579   0  -1   0
       429       9       2   -0.4559    3.4495   -0.0593   0  -1   0