LAMMPS data file. CGCMM style. atom_style angle generated by VMD/TopoTools v1.3 on Fri May 31 14:21:10 CEST 2013
 78 atoms
 77 bonds
 76 angles
 0 dihedrals
 0 impropers
 1 atom types
 1 bond types
 1 angle types
 0 dihedral types
 0 improper types
 -49.787886 50.212114  xlo xhi
 -49.730335 50.269665  ylo yhi
 -52.296933 47.703067  zlo zhi

# Pair Coeffs
#
# 1  A

# Bond Coeffs
#
# 1  A-A

# Angle Coeffs
#
# 1  A-A-A

 Masses

 1 1.000000 # A

 Atoms

1 1 1 0.351785 -0.786999 -2.873479 # A 
2 1 1 0.505763 -0.707914 -2.871073 # A 
3 1 1 0.642261 -0.598862 -2.868600 # A 
4 1 1 0.755480 -0.463650 -2.866056 # A 
5 1 1 0.840438 -0.307207 -2.863440 # A 
6 1 1 0.893190 -0.135398 -2.860748 # A 
7 1 1 0.911001 0.045183 -2.857978 # A 
8 1 1 0.892478 0.227464 -2.855126 # A 
9 1 1 0.837651 0.404173 -2.852190 # A 
10 1 1 0.748003 0.568110 -2.849165 # A 
11 1 1 0.626432 0.712449 -2.846050 # A 
12 1 1 0.477171 0.831006 -2.842839 # A 
13 1 1 0.305647 0.918502 -2.839530 # A 
14 1 1 0.118279 0.970793 -2.836119 # A 
15 1 1 -0.077742 0.985053 -2.832601 # A 
16 1 1 -0.274740 0.959917 -2.828971 # A 
17 1 1 -0.464830 0.895563 -2.825226 # A 
18 1 1 -0.640239 0.793739 -2.821360 # A 
19 1 1 -0.793620 0.657725 -2.817368 # A 
20 1 1 -0.918339 0.492238 -2.813246 # A 
21 1 1 -1.008770 0.303269 -2.808988 # A 
22 1 1 -1.060525 0.097884 -2.804586 # A 
23 1 1 -1.070667 -0.116044 -2.800037 # A 
24 1 1 -1.037852 -0.330124 -2.795332 # A 
25 1 1 -0.962421 -0.535768 -2.790466 # A 
26 1 1 -0.846423 -0.724532 -2.785430 # A 
27 1 1 -0.693573 -0.888451 -2.780218 # A 
28 1 1 -0.509144 -1.020364 -2.774821 # A 
29 1 1 -0.299789 -1.114221 -2.769231 # A 
30 1 1 -0.073319 -1.165346 -2.763439 # A 
31 1 1 0.161590 -1.170658 -2.757435 # A 
32 1 1 0.395713 -1.128828 -2.751210 # A 
33 1 1 0.619632 -1.040377 -2.744753 # A 
34 1 1 0.824105 -0.907696 -2.738054 # A 
35 1 1 1.000432 -0.735005 -2.731100 # A 
36 1 1 1.140819 -0.528223 -2.723878 # A 
37 1 1 1.238709 -0.294782 -2.716377 # A 
38 1 1 1.289071 -0.043368 -2.708581 # A 
39 1 1 1.288640 0.216393 -2.700478 # A 
40 1 1 1.236092 0.474281 -2.692050 # A 
41 1 1 1.132149 0.719888 -2.683281 # A 
42 1 1 0.979601 0.943014 -2.674155 # A 
43 1 1 0.783256 1.134079 -2.664653 # A 
44 1 1 0.549800 1.284522 -2.654754 # A 
45 1 1 0.287589 1.387166 -2.644440 # A 
46 1 1 0.006358 1.436542 -2.633687 # A 
47 1 1 -0.283125 1.429154 -2.622472 # A 
48 1 1 -0.569450 1.363673 -2.610770 # A 
49 1 1 -0.841010 1.241050 -2.598557 # A 
50 1 1 -1.086441 1.064551 -2.585803 # A 
51 1 1 -1.295096 0.839690 -2.572479 # A 
52 1 1 -1.457477 0.574076 -2.558554 # A 
53 1 1 -1.565650 0.277180 -2.543995 # A 
54 1 1 -1.613611 -0.039991 -2.528766 # A 
55 1 1 -1.597577 -0.365273 -2.512832 # A 
56 1 1 -1.516212 -0.685807 -2.496151 # A 
57 1 1 -1.370756 -0.988516 -2.478682 # A 
58 1 1 -1.165054 -1.260625 -2.460381 # A 
59 1 1 -0.905491 -1.490177 -2.441200 # A 
60 1 1 -0.600823 -1.666533 -2.421091 # A 
61 1 1 0.098691 -1.826468 -2.377872 # A 
62 1 1 0.467075 -1.799298 -2.354648 # A 
63 1 1 0.828594 -1.698024 -2.330267 # A 
64 1 1 1.168371 -1.524281 -2.304664 # A 
65 1 1 1.471899 -1.282684 -2.277770 # A 
66 1 1 1.725636 -0.980749 -2.249514 # A 
67 1 1 1.917587 -0.628696 -2.219820 # A 
68 1 1 2.037840 -0.239139 -2.188612 # A 
69 1 1 2.036829 0.592730 -2.121320 # A 
70 1 1 1.910035 1.002130 -2.085066 # A 
71 1 1 1.700944 1.384473 -2.046955 # A 
72 1 1 1.415291 1.723174 -2.006894 # A 
73 1 1 1.062158 2.002851 -1.964792 # A 
74 1 1 0.653746 2.209998 -1.920553 # A 
75 1 1 0.204976 2.333622 -1.874085 # A 
76 1 1 -0.267015 2.365798 -1.825295 # A 
77 1 1 -0.743504 2.302130 -1.774091 # A 
78 1 1 -1.204912 2.142068 -1.720387 # A 

 Bonds

1 1 1 2
2 1 2 3
3 1 3 4
4 1 4 5
5 1 5 6
6 1 6 7
7 1 7 8
8 1 8 9
9 1 9 10
10 1 10 11
11 1 11 12
12 1 12 13
13 1 13 14
14 1 14 15
15 1 15 16
16 1 16 17
17 1 17 18
18 1 18 19
19 1 19 20
20 1 20 21
21 1 21 22
22 1 22 23
23 1 23 24
24 1 24 25
25 1 25 26
26 1 26 27
27 1 27 28
28 1 28 29
29 1 29 30
30 1 30 31
31 1 31 32
32 1 32 33
33 1 33 34
34 1 34 35
35 1 35 36
36 1 36 37
37 1 37 38
38 1 38 39
39 1 39 40
40 1 40 41
41 1 41 42
42 1 42 43
43 1 43 44
44 1 44 45
45 1 45 46
46 1 46 47
47 1 47 48
48 1 48 49
49 1 49 50
50 1 50 51
51 1 51 52
52 1 52 53
53 1 53 54
54 1 54 55
55 1 55 56
56 1 56 57
57 1 57 58
58 1 58 59
59 1 59 60
60 1 60 61
61 1 61 62
62 1 62 63
63 1 63 64
64 1 64 65
65 1 65 66
66 1 66 67
67 1 67 68
68 1 68 69
69 1 69 70
70 1 70 71
71 1 71 72
72 1 72 73
73 1 73 74
74 1 74 75
75 1 75 76
76 1 76 77
77 1 77 78

 Angles

1 1 1 2 3
2 1 2 3 4
3 1 3 4 5
4 1 4 5 6
5 1 5 6 7
6 1 6 7 8
7 1 7 8 9
8 1 8 9 10
9 1 9 10 11
10 1 10 11 12
11 1 11 12 13
12 1 12 13 14
13 1 13 14 15
14 1 14 15 16
15 1 15 16 17
16 1 16 17 18
17 1 17 18 19
18 1 18 19 20
19 1 19 20 21
20 1 20 21 22
21 1 21 22 23
22 1 22 23 24
23 1 23 24 25
24 1 24 25 26
25 1 25 26 27
26 1 26 27 28
27 1 27 28 29
28 1 28 29 30
29 1 29 30 31
30 1 30 31 32
31 1 31 32 33
32 1 32 33 34
33 1 33 34 35
34 1 34 35 36
35 1 35 36 37
36 1 36 37 38
37 1 37 38 39
38 1 38 39 40
39 1 39 40 41
40 1 40 41 42
41 1 41 42 43
42 1 42 43 44
43 1 43 44 45
44 1 44 45 46
45 1 45 46 47
46 1 46 47 48
47 1 47 48 49
48 1 48 49 50
49 1 49 50 51
50 1 50 51 52
51 1 51 52 53
52 1 52 53 54
53 1 53 54 55
54 1 54 55 56
55 1 55 56 57
56 1 56 57 58
57 1 57 58 59
58 1 58 59 60
59 1 59 60 61
60 1 60 61 62
61 1 61 62 63
62 1 62 63 64
63 1 63 64 65
64 1 64 65 66
65 1 65 66 67
66 1 66 67 68
67 1 67 68 69
68 1 68 69 70
69 1 69 70 71
70 1 70 71 72
71 1 71 72 73
72 1 72 73 74
73 1 73 74 75
74 1 74 75 76
75 1 75 76 77
76 1 76 77 78

