LAMMPS data file. CGCMM style. atom_style full generated by VMD/TopoTools v1.3 on Thu May 30 18:23:54 CEST 2013
 6 atoms
 4 bonds
 2 angles
 0 dihedrals
 0 impropers
 2 atom types
 1 bond types
 1 angle types
 0 dihedral types
 0 improper types
 2.214000 22.214000  xlo xhi
 5.010500 25.010500  ylo yhi
 -4.874500 15.125500  zlo zhi

# Pair Coeffs
#
# 1  HT
# 2  OT

# Bond Coeffs
#
# 1  HT-OT

# Angle Coeffs
#
# 1  HT-OT-HT

 Masses

 1 1.007940 # HT
 2 15.999400 # OT

 Atoms

1 1 2 -0.847200 3.189000 1.920000 1.252000 # OT WAT
2 1 1 0.423600 3.957000 2.049000 1.879000 # HT WAT
3 1 1 0.423600 2.569000 1.228000 1.622000 # HT WAT
4 2 2 -0.847200 20.978001 28.017000 8.999000 # OT WAT
5 2 1 0.423600 21.858999 28.125999 8.539000 # HT WAT
6 2 1 0.423600 20.388000 28.792999 8.776000 # HT WAT

 Bonds

1 1 1 2
2 1 1 3
3 1 4 6
4 1 4 5

 Angles

1 1 2 1 3
2 1 5 4 6

