LAMMPS data file. CGCMM style. atom_style angle generated by VMD/TopoTools v1.3 on Fri May 31 18:05:39 CEST 2013
 11 atoms
 10 bonds
 9 angles
 0 dihedrals
 0 impropers
 1 atom types
 1 bond types
 1 angle types
 0 dihedral types
 0 improper types
 -50.000000 50.000000  xlo xhi
 -50.000000 50.000000  ylo yhi
 -50.000000 50.000000  zlo zhi

# Pair Coeffs
#
# 1  A

# Bond Coeffs
#
# 1  A-A

# Angle Coeffs
#
# 1  A-A-A

 Masses

 1 1.000000 # A

 Atoms

1 1 1 0.000000 0.000000 -5.000000 # A 
2 1 1 0.000000 0.000000 -4.000000 # A 
3 1 1 0.000000 0.000000 -3.000000 # A 
4 1 1 0.000000 0.000000 -2.000000 # A 
5 1 1 0.000000 0.000000 -1.000000 # A 
6 1 1 0.000000 0.000000 0.000000 # A 
7 1 1 0.000000 0.000000 1.000000 # A 
8 1 1 0.000000 0.000000 2.000000 # A 
9 1 1 0.000000 0.000000 3.000000 # A 
10 1 1 0.000000 0.000000 4.000000 # A 
11 1 1 0.000000 0.000000 5.000000 # A 

 Bonds

1 1 1 2
2 1 2 3
3 1 3 4
4 1 4 5
5 1 5 6
6 1 6 7
7 1 7 8
8 1 8 9
9 1 9 10
10 1 10 11

 Angles

1 1 1 2 3
2 1 2 3 4
3 1 3 4 5
4 1 4 5 6
5 1 5 6 7
6 1 6 7 8
7 1 7 8 9
8 1 8 9 10
9 1 9 10 11

