LAMMPS (26 May 2013-ICMS)
  using 2 OpenMP thread(s) per MPI task
using multi-threaded neighbor list subroutines
prefer double precision OpenMP force kernels
  1 = max bonds/atom
  orthogonal box = (-5.42561 -5.42561 -5.42561) to (5.42561 5.42561 5.42561)
  1 by 1 by 1 MPI processor grid
  800 atoms
  784 bonds
  2 = max # of 1-2 neighbors
  2 = max # of 1-3 neighbors
  4 = max # of 1-4 neighbors
  6 = max # of special neighbors
  2 = max # of 1-2 neighbors
  2 = max # of special neighbors
Last active /omp style is bond_style harmonic/omp
Memory usage per processor = 3.13869 Mbytes
Step Temp E_pair E_mol TotEng Press 
       0         0.45   0.85482606 8.3632808e-08    1.5289824   0.80722514 
      50   0.45342454   0.87715183   0.16577484    1.7222133   0.59647529 
     100   0.45109669   0.90310575   0.21393178    1.7928368   0.54391781 
     150   0.45447099   0.93239831   0.22311104    1.8363637   0.60159436 
     200   0.45551111   0.95468457   0.23474432    1.8718415    0.6442749 
     250   0.44406381   0.97707631   0.24376422    1.8861036   0.68968873 
     300   0.45368865   0.98973796    0.2395021    1.9089224   0.74363763 
     350   0.47213476   0.97458009   0.26121798     1.943115    0.7081597 
     400   0.46881729   0.98669686   0.25694754    1.9459913   0.73851186 
     450   0.44843338    1.0185314   0.23475959    1.9251002   0.73276588 
     500    0.4582432    1.0132355   0.22862133    1.9283624   0.79233127 
     550   0.46067507    1.0177187   0.24038482    1.9482524   0.74870268 
     600   0.45574619   0.99971067   0.23641762     1.918893   0.77864445 
     650   0.45334553    1.0109829   0.24562993    1.9357812   0.84893067 
     700   0.43986304    1.0207807   0.23117173    1.9109223   0.92737925 
     750   0.45182628    1.0078426   0.24266834    1.9274031    0.9281645 
     800   0.45942761    1.0174546   0.25719823    1.9629328   0.93423603 
     850   0.44939229   0.99317528   0.24770155    1.9141227   0.90987549 
     900   0.46090578    1.0169454   0.23317223    1.9406121    1.0175845 
     950   0.45370192    1.0166973   0.25053858    1.9469381    1.0145471 
    1000   0.44056127   0.99640997   0.24367979    1.9001056    0.9919767 
    1050   0.44279451    0.9629145   0.26007597     1.886352   0.96326284 
    1100   0.43400259   0.96146565   0.25700672    1.8686625    1.0042978 
    1150   0.45218465   0.94127009   0.25204476     1.870744   0.99899178 
    1200   0.44947625   0.93889647   0.25000621    1.8622743    1.0057916 
    1250   0.46026142   0.92749057   0.25259628     1.869616    1.0468892 
    1300   0.46776701   0.91741926   0.26363038    1.8818231    1.0889259 
    1350   0.46953307   0.89382288   0.27291406    1.8701562    1.0498319 
    1400   0.44946716   0.89654373   0.26898025     1.838882    1.0701767 
    1450   0.42918714    0.8796767   0.26427781    1.7869305    1.1344951 
    1500   0.43915899   0.87898883    0.2624097    1.7993136    1.1323995 
    1550     0.456243   0.86253967   0.27775035    1.8237991     1.108217 
    1600   0.42563117   0.85928203   0.27127862    1.7682094    1.0785256 
    1650   0.44892493   0.84300115   0.26715707    1.7827039    1.1456427 
    1700   0.45482784   0.84979541   0.25462028    1.7858046    1.1428387 
    1750   0.46457189   0.83234536   0.26146733    1.7897994    1.1519135 
    1800   0.43678906   0.81376215    0.2753553    1.7434821    1.1703828 
    1850   0.45011098   0.80338585    0.2880891    1.7657975    1.1211501 
    1900   0.45351409   0.81248024   0.28995347    1.7818545    1.1737983 
    1950   0.47033794   0.79813131   0.29930605    1.8020624    1.1412268 
    2000   0.44443041   0.78203964   0.26864321    1.7164952    1.1787956 
    2050   0.44685693   0.78536952   0.26079259    1.7156097     1.208514 
    2100    0.4518374   0.77660678   0.26119262    1.7147083    1.1933867 
    2150   0.43203957   0.76106606   0.27658603    1.6849014    1.1760629 
    2200   0.46684159   0.74960383   0.25510644    1.7040973    1.2449183 
    2250   0.46327225   0.73550531   0.27825784    1.7078029    1.1696554 
    2300   0.45689834   0.72854205   0.28995386    1.7029867    1.2349555 
    2350   0.43424995   0.70891235   0.27514481    1.6346179    1.2034083 
    2400   0.44067774   0.67989912   0.25699019    1.5970796    1.2501978 
    2450   0.44619392   0.68537967    0.2705079    1.6243418    1.3169609 
    2500   0.43939508   0.68983759   0.27916188    1.6272682    1.3034661 
    2550    0.4344943   0.68778177   0.27349018    1.6121987    1.2614607 
    2600   0.45166314   0.64814896   0.27338326    1.5981801    1.2647111 
    2650   0.47135786   0.65584978   0.28631425     1.648317    1.2380184 
    2700   0.43831256   0.67319597   0.26885449    1.5986975     1.247877 
    2750   0.46880544   0.66976677   0.25863542    1.6307313    1.2685853 
    2800    0.4679459   0.65751921   0.27638717    1.6349478     1.246638 
    2850   0.45121204   0.65346543   0.27385922    1.6032967    1.2945264 
    2900   0.44867688   0.62185038   0.26777186    1.5617963    1.2656531 
    2950   0.45552421   0.59521042   0.26256817    1.5402108    1.1884543 
    3000   0.44579645   0.59366495   0.27203961    1.5335634    1.2687201 
    3050   0.44879947   0.57149786   0.28290529    1.5267609     1.279095 
    3100   0.45287782   0.56283852   0.29530776    1.5366139    1.3263516 
    3150   0.43986876   0.57077739   0.27399847    1.5037543    1.4312539 
    3200   0.44455512   0.58226358   0.26995638    1.5182191    1.4669814 
    3250   0.45818401   0.56359468   0.26979115    1.5198027    1.3672163 
    3300   0.46322348   0.56759611   0.25884591    1.5204087    1.3467238 
    3350   0.44947035   0.54263107   0.28381452    1.4998084    1.3259024 
    3400   0.44199529   0.52747387   0.28219281    1.4718309    1.3536542 
    3450    0.4351332   0.51557483   0.28830798    1.4557667    1.2513747 
    3500   0.42770584   0.52276532   0.27112341    1.4346455    1.2554374 
    3550    0.4374142   0.48975772   0.29343337    1.4384922    1.1984756 
    3600   0.44092824   0.49105165   0.28262697    1.4342442    1.2901444 
    3650   0.46197907   0.48920584   0.28605033    1.4673586    1.3115242 
    3700   0.46191755   0.47348125    0.3079431    1.4734346    1.2906678 
    3750   0.44339875   0.47259797   0.29522456    1.4320893    1.2620131 
    3800   0.45192001   0.48297503   0.29537499    1.4553827    1.3474216 
    3850      0.44441   0.46599241   0.30279928    1.4345734    1.3047465 
    3900   0.45403688   0.43668554   0.27947389    1.3963634    1.2876337 
    3950   0.45803252   0.41565428   0.25890228    1.3607465     1.276144 
    4000   0.44928665   0.43099488   0.28005458     1.384137    1.2332904 
    4050   0.45792273   0.44646267   0.29384352    1.4263317    1.3327233 
    4100   0.45224637   0.42105549    0.2706333    1.3692104    1.3426604 
    4150   0.43493308   0.40447606   0.28967108    1.3457313    1.3403282 
    4200   0.44302482   0.40374918   0.26597359    1.3334293    1.2577388 
    4250   0.46105288   0.38233485   0.26190137    1.3349511    1.2649508 
    4300   0.45088832   0.38540935   0.25672222    1.3176186    1.2320691 
    4350   0.44382544   0.38052061   0.25626973    1.3016963    1.1517171 
    4400   0.45165255   0.39494044    0.2410489    1.3126213    1.3046477 
    4450   0.44646915   0.38741445   0.25564829    1.3119293    1.3043849 
    4500   0.43073368   0.40021149    0.2340163    1.2795207    1.3000733 
    4550   0.44485841   0.38215951   0.24872723    1.2973403     1.298899 
    4600   0.46813581   0.35110969   0.26216762    1.3146033     1.213896 
    4650   0.45432016   0.36628614   0.24918688    1.2961014    1.2442698 
    4700   0.44567893   0.35178228   0.27548365    1.2949487    1.2571463 
    4750   0.44111349   0.34479013   0.28086584    1.2864991    1.2793625 
    4800   0.44665473   0.33967987   0.25300803    1.2618325    1.2558545 
    4850   0.45774725   0.35171826   0.25646044    1.2939413    1.2974314 
    4900   0.46852264    0.3302966   0.25713303    1.2893351    1.2581112 
    4950   0.47952261   0.34258703   0.25932803    1.3202999    1.1777623 
    5000   0.45712432   0.30781087   0.25301556    1.2456558    1.1342132 
    5050   0.43847487    0.3169223   0.26861327    1.2424257       1.2126 
    5100    0.4409258    0.3203433   0.24007977     1.220985    1.2574425 
    5150   0.45671285   0.30647152   0.23760681    1.2282913      1.19598 
    5200   0.43922921   0.31074915   0.22140435    1.1901738    1.1356091 
    5250   0.44573121   0.31833631   0.22217792    1.2082753     1.288932 
    5300   0.44876339   0.30028339   0.25196367    1.2245507    1.3085113 
    5350   0.44169277   0.29361271   0.24525179    1.2005755    1.2179317 
    5400   0.46732744   0.28740376   0.24472493    1.2322436    1.3217292 
    5450   0.44701398   0.29938824    0.2429426    1.2120137    1.3427903 
    5500   0.44436488    0.2933784   0.25361098    1.2127035    1.3005086 
    5550   0.44500269   0.30178714   0.23744406    1.2059009    1.2951526 
    5600   0.46486408   0.29675528   0.22994535    1.2231251    1.3170248 
    5650   0.43683333   0.29550243   0.25328602    1.2032194    1.1968959 
    5700   0.46585382   0.28216886   0.24717142    1.2272475    1.2104421 
    5750   0.45239532   0.27488869    0.2530349    1.2056683     1.278128 
    5800   0.46718447   0.28155256   0.25754357    1.2389969    1.2044805 
    5850   0.44220592   0.28039018   0.25102332    1.1938932    1.1767466 
    5900   0.47803917   0.28713846   0.23819894    1.2414998    1.2933411 
    5950   0.45328713   0.28215476   0.26562529    1.2268608    1.2296812 
    6000   0.44801048   0.27487327   0.24586106      1.19191    1.1350543 
    6050   0.47041539   0.26750197   0.25435175    1.2265948    1.1256916 
    6100   0.44831719    0.2718655    0.2498605    1.1933612    1.1497661 
    6150   0.43751926   0.23985513   0.25470643    1.1500201    1.1707526 
    6200   0.45740483    0.2624049   0.22882534    1.1764799    1.2570019 
    6250   0.44532496    0.2675621   0.24141938    1.1761339    1.2154383 
    6300   0.44930217   0.24693362   0.24445549    1.1644999    1.2054137 
    6350   0.45923413   0.25340495   0.24803752    1.1894326    1.1958059 
    6400   0.44771795   0.24473442   0.24330432    1.1587762    1.2048593 
    6450   0.42183643   0.23378593   0.25467102    1.1204206    1.1419746 
    6500   0.43587337   0.24787165   0.24464799    1.1455124    1.1042972 
    6550   0.45216731   0.23306365   0.23669904    1.1471658    1.1001317 
    6600   0.45435467   0.21060875   0.22601919     1.117308    1.2005125 
    6650     0.463484   0.20864131   0.23923172      1.14223     1.166541 
    6700   0.46339016   0.20623938   0.24719329    1.1476491    1.1056999 
    6750   0.42625987   0.22226273   0.23238398    1.0932373    1.1590721 
    6800   0.44901616   0.22710601   0.25354639    1.1533347    1.2563016 
    6850   0.42805339   0.23105897   0.25623199    1.1285685    1.1517742 
    6900   0.45384572   0.23091846   0.24620122    1.1570373     1.254627 
    6950   0.44435703   0.22990536   0.26058478    1.1561925    1.2364991 
    7000   0.45857589   0.24458213   0.23877958    1.1703657    1.2722736 
    7050   0.44669616   0.25291445   0.24991956    1.1720407    1.2643929 
    7100    0.4500166   0.24074583   0.24404764    1.1589746    1.2979051 
    7150   0.41744482   0.23986951   0.25886761    1.1241216    1.2573662 
    7200   0.45030246   0.25854484   0.23709623    1.1702505    1.2916669 
    7250   0.44904151   0.22376072   0.24243955    1.1389206    1.2471389 
    7300   0.47281794   0.22459834   0.24475473    1.1776935    1.2104281 
    7350   0.45233616   0.22674099   0.24684318    1.1512403    1.1754427 
    7400   0.46115556   0.23284269   0.21034292    1.1340543    1.2666337 
    7450   0.43313558   0.21880007   0.23510862    1.1027999    1.2482787 
    7500   0.46823327   0.23103662   0.24317512    1.1756837    1.3768261 
    7550   0.43998618   0.23304766   0.24691467    1.1391166    1.3129613 
    7600   0.44720201   0.22347715   0.23473209    1.1281737    1.3170302 
    7650   0.45210926   0.23878271   0.22937826    1.1454772    1.4169623 
    7700   0.46523609   0.22346317   0.26224269    1.1826877    1.3458459 
    7750   0.44916315   0.20024225    0.2303099    1.1034547    1.3178504 
    7800   0.46013027   0.22404434    0.2410908    1.1544678    1.2968908 
    7850   0.44294066   0.20062247   0.24981615    1.1140191    1.1891409 
    7900   0.44792679   0.20615845   0.24170899    1.1189178    1.0903633 
    7950   0.44320837   0.20340128   0.22896355    1.0963464    1.0917866 
    8000      0.45541   0.21059288   0.23350343    1.1263574    1.1139894 
    8050   0.44877221   0.20889311   0.23682158    1.1180316    1.0974081 
    8100   0.44981833   0.19597171   0.24089628    1.1107521    1.1669343 
    8150   0.44599854   0.18519529   0.24007254    1.0934294    1.2280142 
    8200   0.45013308   0.19330723   0.23977362    1.1074365    1.1250527 
    8250   0.43892916   0.19723494   0.23888225    1.0936879    1.1339063 
    8300   0.43591552   0.19270548    0.2409385    1.0866999    1.0756886 
    8350   0.44424412   0.20775303   0.25145868    1.1247449    1.0883845 
    8400    0.4644972   0.19146237   0.22825677     1.115594    1.0972897 
    8450   0.42027107   0.20349861   0.22500805    1.0581253    1.1305826 
    8500   0.44176361   0.20138426   0.23101878    1.0942201    1.1569391 
    8550   0.44879556   0.20930024   0.23833611    1.1199882    1.1355447 
    8600   0.44091603   0.19740808   0.24459558     1.102551    1.2141993 
    8650   0.47104057   0.20377834   0.22154848    1.1310045    1.2405054 
    8700   0.45244923   0.20447831   0.26210782    1.1444116    1.2063105 
    8750    0.4449284   0.21207525    0.2694539    1.1480875    1.2098929 
    8800   0.45380369   0.21537131   0.24444766    1.1396736    1.3063519 
    8850   0.46041977   0.20693038   0.25939379    1.1560905     1.221983 
    8900   0.44603317   0.19751241   0.22194944    1.0876753    1.2031259 
    8950   0.45258259    0.1638153   0.21681558    1.0586562    1.1615257 
    9000   0.43861092    0.1835067   0.22943458    1.0700353    1.2406057 
    9050   0.43636711   0.16346443   0.24523605     1.062433    1.1015307 
    9100    0.4339263   0.16834705   0.23537343    1.0537963    1.1500965 
    9150   0.43726319   0.19344669   0.22999708    1.0785187    1.1471613 
    9200    0.4522358   0.18660787   0.23613797    1.1002516     1.168029 
    9250   0.45427362   0.19405525   0.22716306     1.101777    1.1417289 
    9300   0.44275882   0.21126969   0.21797131    1.0925491    1.1969769 
    9350    0.4255597   0.18587479   0.23534731    1.0587637    1.0964803 
    9400   0.44685252   0.18002453   0.24221445    1.0916799    1.0728986 
    9450    0.4526535   0.18622527   0.22872507    1.0930819     1.119227 
    9500   0.44959916   0.17953236   0.22412958    1.0772177    1.1174665 
    9550   0.45275581   0.16535152   0.24056536    1.0842017    1.0991559 
    9600   0.46080585   0.18306499   0.23276799    1.1061777    1.2083381 
    9650   0.46129528   0.16905265   0.24153807    1.1016687    1.0724487 
    9700   0.43492104   0.17557026   0.23816892    1.0653053    1.0634753 
    9750   0.46402222   0.17870578   0.24588605    1.1197551    1.1773508 
    9800   0.44675047    0.1903294   0.23453013    1.0941476    1.2145819 
    9850    0.4522131   0.18486068   0.23178224    1.0941147    1.2808311 
    9900   0.46679878   0.20557838   0.22641345    1.1313148    1.3591636 
    9950   0.44315929   0.18741161   0.22803243    1.0793521      1.27421 
   10000   0.43043112   0.15618138   0.22101576    1.0220368    1.1460968 
Loop time of 6.26017 on 2 procs (1 MPI x 2 OpenMP) for 10000 steps with 800 atoms

Section |  min time  |  avg time  |  max time  |%total |  #Thr
--------------------------------------------------------------
Pair    | 3.1817     | 3.1817     | 3.1817     | 50.82 |  1.8x
Bond    | 0.50899    | 0.50899    | 0.50899    |  8.13 |  1.6x
Neigh   | 0.35197    | 0.35197    | 0.35197    |  5.62 |  1.9x
Comm    | 0.25626    | 0.25626    | 0.25626    |  4.09 |  1.9x
Output  | 0.033639   | 0.033639   | 0.033639   |  0.54 |  1.3x
Modify  | 1.7776     | 1.7776     | 1.7776     | 28.39 |  1.7x
Other   |            | 0.15       |            |  2.40 |

Nlocal:    800 ave 800 max 800 min
Histogram: 1 0 0 0 0 0 0 0 0 0
Nghost:    691 ave 691 max 691 min
Histogram: 1 0 0 0 0 0 0 0 0 0
Neighs:    2433 ave 2433 max 2433 min
Histogram: 1 0 0 0 0 0 0 0 0 0

Total # of neighbors = 2433
Ave neighs/atom = 3.04125
Ave special neighs/atom = 1.96
Neighbor list builds = 455
Dangerous builds = 0
Last active /omp style is bond_style harmonic/omp
Memory usage per processor = 3.75913 Mbytes
Step Temp E_pair E_mol TotEng Press 
       0   0.43043112   -2.4371158   0.22101576   -1.5712604    10.798124 
    1000     1.857453   -5.3852411    1.0224281   -1.5801163    0.8213599 
    2000    1.9053879   -5.3750046   0.93999701   -1.5804983    1.0103299 
    3000    1.9573457   -5.4248039   0.91211954   -1.5803358   0.66142761 
    4000     1.871959   -5.3472734   0.96280807   -1.5800367   0.77561035 
    5000    1.8821812   -5.3939601    0.9942557   -1.5799617   0.86346715 
    6000     1.889907   -5.4192706    1.0078323   -1.5801214   0.57787424 
    7000    1.8313512   -5.3645628    1.0411146   -1.5798551    0.7240859 
    8000    1.9188295   -5.4333191   0.97822677   -1.5804458   0.58017157 
    9000    1.8390001   -5.4428702    1.1074236   -1.5803945   0.51366844 
   10000    1.9472149   -5.4722477   0.97456163   -1.5805147   0.55215331 
   11000    1.8185776   -5.4007499    1.0962547   -1.5800387   0.63302105 
   12000    1.8192025   -5.3534377    1.0481782   -1.5798667   0.71375168 
   13000    1.9123131   -5.4269719   0.98167659   -1.5804112   0.46929846 
   14000     1.904219   -5.3925461   0.95967421   -1.5801138   0.74855284 
   15000    1.8707123   -5.4194487    1.0369778   -1.5799101   0.54213283 
   16000    1.8772942   -5.4596256    1.0665812    -1.580623   0.42669381 
   17000    1.9324377   -5.4220535   0.94692805   -1.5800923   0.69622877 
   18000    1.8600244   -5.3872001    1.0208326   -1.5798185   0.57526059 
   19000    1.8635812   -5.3458647   0.97400483   -1.5799823   0.94235398 
   20000    1.9438677   -5.5140767    1.0217376   -1.5801824    0.3656847 
   21000     1.981276   -5.4468466   0.89829642   -1.5803512   0.46997059 
   22000    1.8835261   -5.4388143    1.0366444   -1.5804124   0.55296256 
   23000      1.82556   -5.3071925    0.9925978   -1.5796777   0.95985629 
   24000    1.8785541   -5.3713111   0.97687064   -1.5801315   0.69498636 
   25000    1.8600442   -5.3955797    1.0290936   -1.5799074   0.59870991 
   26000    1.9137277   -5.3787529   0.93141966     -1.58033   0.69101163 
   27000    1.8398491   -5.3707543    1.0344361   -1.5799942   0.72936022 
   28000    1.8707226   -5.3817625   0.99940835   -1.5797779   0.72384727 
   29000    1.8588463   -5.3786665     1.013884   -1.5799983   0.70286835 
   30000    1.9004777   -5.4242076     0.996676   -1.5803784   0.46829343 
   31000    1.8203781   -5.3439169    1.0370922   -1.5796707   0.72533328 
   32000    1.9332236   -5.4607274   0.98413243   -1.5803844    0.6742022 
   33000    1.8417764   -5.3409974    1.0018918   -1.5798942   0.71162303 
   34000    1.8583404   -5.3932709    1.0289425   -1.5803022   0.48392954 
   35000    1.8790173   -5.4165584    1.0216131   -1.5799424   0.58638568 
   36000    1.8464004   -5.3130868   0.96711173   -1.5798365     1.098625 
   37000    1.8168576   -5.3258222    1.0241912   -1.5797512   0.72826255 
   38000    1.9029646   -5.4092793   0.97819209   -1.5802084   0.38602745 
   39000    1.8440281   -5.3762854    1.0336828   -1.5800179   0.62834522 
   40000    1.8475493   -5.3865011    1.0387573    -1.579884   0.76765324 
   41000     1.815115   -5.2931547   0.99405563   -1.5798299    0.9018557 
   42000    1.8064552   -5.3126213    1.0264537   -1.5798719   0.74349432 
   43000     1.892083   -5.3592706   0.94467944   -1.5800143   0.78600854 
   44000     1.829216   -5.3868994    1.0666939   -1.5798113    0.6224244 
   45000    1.8596814   -5.3485558   0.98257956   -1.5799411   0.88028964 
   46000      1.85534   -5.3612108    1.0020075   -1.5796721   0.73594368 
   47000    1.9105769   -5.4477176    1.0049862   -1.5804483   0.62084751 
   48000    1.9144147   -5.4437224   0.99553033   -1.5801595   0.56981347 
   49000    1.8535005   -5.3914233     1.034641   -1.5800069   0.53799067 
   50000    1.8263333   -5.2882307   0.97243616    -1.579719   0.93446934 
   51000    1.8953698   -5.4312998    1.0120101    -1.579789   0.29536654 
   52000    1.8417126   -5.3473879     1.008339   -1.5799332    0.7935472 
   53000    1.8541154     -5.38782    1.0297283   -1.5803951   0.79824135 
   54000    1.8801891   -5.3775356   0.98075864   -1.5800186   0.78163873 
   55000    1.9420435   -5.4054912   0.91580046   -1.5802669   0.74508846 
   56000    1.8839719   -5.3856313    0.9832266   -1.5799792   0.66780066 
   57000    1.8692917   -5.3726589    0.9924477   -1.5797786    0.5860637 
   58000    1.8714505   -5.3880263    1.0039626   -1.5803969   0.59165259 
   59000    1.9053336   -5.3681102   0.93334096   -1.5803413   0.81985313 
   60000    1.8511101   -5.3702378    1.0170184   -1.5800252    0.8376127 
Loop time of 343.859 on 2 procs (1 MPI x 2 OpenMP) for 60000 steps with 800 atoms

Section |  min time  |  avg time  |  max time  |%total |  #Thr
--------------------------------------------------------------
Pair    | 204.32     | 204.32     | 204.32     | 59.42 |  1.9x
Bond    | 7.19       | 7.19       | 7.19       |  2.09 |  1.5x
Neigh   | 71.017     | 71.017     | 71.017     | 20.65 |  1.9x
Comm    | 8.0408     | 8.0408     | 8.0408     |  2.34 |  1.9x
Output  | 43.953     | 43.953     | 43.953     | 12.78 |  1.0x
Modify  | 8.5022     | 8.5022     | 8.5022     |  2.47 |  1.3x
Other   |            | 0.8367     |            |  0.24 |

Nlocal:    800 ave 800 max 800 min
Histogram: 1 0 0 0 0 0 0 0 0 0
Nghost:    5748 ave 5748 max 5748 min
Histogram: 1 0 0 0 0 0 0 0 0 0
Neighs:    173604 ave 173604 max 173604 min
Histogram: 1 0 0 0 0 0 0 0 0 0

Total # of neighbors = 173604
Ave neighs/atom = 217.005
Ave special neighs/atom = 1.96
Neighbor list builds = 5819
Dangerous builds = 4133
